file 17158766 1427362742                                        
version 2
run MCoA_ALL-0-20150326-10:38:56-4020
attr configname MCoA_ALL
attr datetime 20150326-10:38:56
attr experiment MCoA_ALL
attr inifile VoIPMCoACN.ini
attr iterationvars ""
attr iterationvars2 $repetition=0
attr measurement ""
attr network VoIPMCoAMulti
attr processid 4020
attr repetition 0
attr replication #0
attr resultdir results
attr runnumber 0
attr seedset 0

vector 0  VoIPMCoAMulti.Ra.networkLayer.ipv6  IPv6Active_Event  ETV
vector 51  VoIPMCoAMulti.CN[0].networkLayer.ipv6  IPv6Active_Event  ETV
vector 76  VoIPMCoAMulti.HA.networkLayer.ipv6  IPv6Active_Event  ETV
vector 133  VoIPMCoAMulti.MN[0].networkLayer.ipv6  IPv6Active_Event  ETV
vector 156  VoIPMCoAMulti.MN[1].networkLayer.ipv6  IPv6Active_Event  ETV
vector 162  VoIPMCoAMulti.R1.networkLayer.ipv6  IPv6Active_Event  ETV
vector 241  VoIPMCoAMulti.Rb.networkLayer.ipv6  IPv6Active_Event  ETV
vector 109  VoIPMCoAMulti.AP_HA.wlan.mac  RadioState  ETV
attr enum  "IDLE=0, RECV=1, SLEEP=3, TRANSMIT=2"
attr enumname  RadioState
vector 108  VoIPMCoAMulti.AP_HA.wlan.mac  State  ETV
attr enum  "BACKOFF=3, DEFER=1, IDLE=0, RECEIVE=8, WAITACK=4, WAITBROADCAST=5, WAITCTS=6, WAITDIFS=2, WAITSIFS=7"
attr enumname  Ieee80211Mac
vector 137  VoIPMCoAMulti.MN[0].wlan[0].mac  RadioState  ETV
attr enum  "IDLE=0, RECV=1, SLEEP=3, TRANSMIT=2"
attr enumname  RadioState
vector 136  VoIPMCoAMulti.MN[0].wlan[0].mac  State  ETV
attr enum  "BACKOFF=3, DEFER=1, IDLE=0, RECEIVE=8, WAITACK=4, WAITBROADCAST=5, WAITCTS=6, WAITDIFS=2, WAITSIFS=7"
attr enumname  Ieee80211Mac
vector 142  VoIPMCoAMulti.MN[0].wlan[1].mac  RadioState  ETV
attr enum  "IDLE=0, RECV=1, SLEEP=3, TRANSMIT=2"
attr enumname  RadioState
vector 141  VoIPMCoAMulti.MN[0].wlan[1].mac  State  ETV
attr enum  "BACKOFF=3, DEFER=1, IDLE=0, RECEIVE=8, WAITACK=4, WAITBROADCAST=5, WAITCTS=6, WAITDIFS=2, WAITSIFS=7"
attr enumname  Ieee80211Mac
vector 147  VoIPMCoAMulti.MN[0].wlan[2].mac  RadioState  ETV
attr enum  "IDLE=0, RECV=1, SLEEP=3, TRANSMIT=2"
attr enumname  RadioState
vector 146  VoIPMCoAMulti.MN[0].wlan[2].mac  State  ETV
attr enum  "BACKOFF=3, DEFER=1, IDLE=0, RECEIVE=8, WAITACK=4, WAITBROADCAST=5, WAITCTS=6, WAITDIFS=2, WAITSIFS=7"
attr enumname  Ieee80211Mac
vector 160  VoIPMCoAMulti.MN[1].wlan[0].mac  RadioState  ETV
attr enum  "IDLE=0, RECV=1, SLEEP=3, TRANSMIT=2"
attr enumname  RadioState
vector 159  VoIPMCoAMulti.MN[1].wlan[0].mac  State  ETV
attr enum  "BACKOFF=3, DEFER=1, IDLE=0, RECEIVE=8, WAITACK=4, WAITBROADCAST=5, WAITCTS=6, WAITDIFS=2, WAITSIFS=7"
attr enumname  Ieee80211Mac
vector 209  VoIPMCoAMulti.AP_1.wlan.mac  RadioState  ETV
attr enum  "IDLE=0, RECV=1, SLEEP=3, TRANSMIT=2"
attr enumname  RadioState
vector 208  VoIPMCoAMulti.AP_1.wlan.mac  State  ETV
attr enum  "BACKOFF=3, DEFER=1, IDLE=0, RECEIVE=8, WAITACK=4, WAITBROADCAST=5, WAITCTS=6, WAITDIFS=2, WAITSIFS=7"
attr enumname  Ieee80211Mac
vector 227  VoIPMCoAMulti.AP_2.wlan.mac  RadioState  ETV
attr enum  "IDLE=0, RECV=1, SLEEP=3, TRANSMIT=2"
attr enumname  RadioState
vector 226  VoIPMCoAMulti.AP_2.wlan.mac  State  ETV
attr enum  "BACKOFF=3, DEFER=1, IDLE=0, RECEIVE=8, WAITACK=4, WAITBROADCAST=5, WAITCTS=6, WAITDIFS=2, WAITSIFS=7"
attr enumname  Ieee80211Mac
vector 177  VoIPMCoAMulti.R1.eth[1].queue  "queue length"  ETV
vector 91  VoIPMCoAMulti.HA.eth[1].queue  "queue length"  ETV
vector 191  VoIPMCoAMulti.R1.eth[2].queue  "queue length"  ETV
vector 271  VoIPMCoAMulti.CN[0].networkLayer.neighbourDiscovery  "Starting DAD"  ETV
vector 324  VoIPMCoAMulti.Rb.networkLayer.neighbourDiscovery  "Starting DAD"  ETV
vector 270  VoIPMCoAMulti.Ra.networkLayer.neighbourDiscovery  "Starting DAD"  ETV
vector 323  VoIPMCoAMulti.R1.networkLayer.neighbourDiscovery  "Starting DAD"  ETV
vector 297  VoIPMCoAMulti.MN[0].networkLayer.neighbourDiscovery  "Starting DAD"  ETV
vector 284  VoIPMCoAMulti.HA.networkLayer.neighbourDiscovery  "Starting DAD"  ETV
vector 310  VoIPMCoAMulti.MN[1].networkLayer.neighbourDiscovery  "Starting DAD"  ETV
vector 3  VoIPMCoAMulti.Ra.eth[0].mac  framesSent  ETV
vector 5  VoIPMCoAMulti.Ra.eth[0].mac  bytesSent  ETV
vector 17  VoIPMCoAMulti.Ra.eth[1].mac  framesSent  ETV
vector 19  VoIPMCoAMulti.Ra.eth[1].mac  bytesSent  ETV
vector 31  VoIPMCoAMulti.Ra.eth[2].mac  framesSent  ETV
vector 33  VoIPMCoAMulti.Ra.eth[2].mac  bytesSent  ETV
vector 54  VoIPMCoAMulti.CN[0].eth[0].mac  framesSent  ETV
vector 56  VoIPMCoAMulti.CN[0].eth[0].mac  bytesSent  ETV
vector 79  VoIPMCoAMulti.HA.eth[0].mac  framesSent  ETV
vector 81  VoIPMCoAMulti.HA.eth[0].mac  bytesSent  ETV
vector 93  VoIPMCoAMulti.HA.eth[1].mac  framesSent  ETV
vector 95  VoIPMCoAMulti.HA.eth[1].mac  bytesSent  ETV
vector 165  VoIPMCoAMulti.R1.eth[0].mac  framesSent  ETV
vector 167  VoIPMCoAMulti.R1.eth[0].mac  bytesSent  ETV
vector 179  VoIPMCoAMulti.R1.eth[1].mac  framesSent  ETV
vector 181  VoIPMCoAMulti.R1.eth[1].mac  bytesSent  ETV
vector 193  VoIPMCoAMulti.R1.eth[2].mac  framesSent  ETV
vector 195  VoIPMCoAMulti.R1.eth[2].mac  bytesSent  ETV
vector 244  VoIPMCoAMulti.Rb.eth[0].mac  framesSent  ETV
vector 246  VoIPMCoAMulti.Rb.eth[0].mac  bytesSent  ETV
vector 258  VoIPMCoAMulti.Rb.eth[1].mac  framesSent  ETV
vector 260  VoIPMCoAMulti.Rb.eth[1].mac  bytesSent  ETV
vector 80  VoIPMCoAMulti.HA.eth[0].mac  framesReceivedOK  ETV
vector 82  VoIPMCoAMulti.HA.eth[0].mac  bytesReceivedOK  ETV
vector 86  VoIPMCoAMulti.HA.eth[0].mac  framesPassedToHL  ETV
vector 166  VoIPMCoAMulti.R1.eth[0].mac  framesReceivedOK  ETV
vector 168  VoIPMCoAMulti.R1.eth[0].mac  bytesReceivedOK  ETV
vector 172  VoIPMCoAMulti.R1.eth[0].mac  framesPassedToHL  ETV
vector 4  VoIPMCoAMulti.Ra.eth[0].mac  framesReceivedOK  ETV
vector 6  VoIPMCoAMulti.Ra.eth[0].mac  bytesReceivedOK  ETV
vector 10  VoIPMCoAMulti.Ra.eth[0].mac  framesPassedToHL  ETV
vector 112  VoIPMCoAMulti.AP_HA.eth[0]  framesReceivedOK  ETV
vector 114  VoIPMCoAMulti.AP_HA.eth[0]  bytesReceivedOK  ETV
vector 118  VoIPMCoAMulti.AP_HA.eth[0]  framesPassedToHL  ETV
vector 18  VoIPMCoAMulti.Ra.eth[1].mac  framesReceivedOK  ETV
vector 20  VoIPMCoAMulti.Ra.eth[1].mac  bytesReceivedOK  ETV
vector 24  VoIPMCoAMulti.Ra.eth[1].mac  framesPassedToHL  ETV
vector 212  VoIPMCoAMulti.AP_1.eth[0]  framesReceivedOK  ETV
vector 214  VoIPMCoAMulti.AP_1.eth[0]  bytesReceivedOK  ETV
vector 218  VoIPMCoAMulti.AP_1.eth[0]  framesPassedToHL  ETV
vector 230  VoIPMCoAMulti.AP_2.eth[0]  framesReceivedOK  ETV
vector 232  VoIPMCoAMulti.AP_2.eth[0]  bytesReceivedOK  ETV
vector 236  VoIPMCoAMulti.AP_2.eth[0]  framesPassedToHL  ETV
vector 105  VoIPMCoAMulti.AP_HA.relayUnit  "buffer level"  ETV
vector 205  VoIPMCoAMulti.AP_1.relayUnit  "buffer level"  ETV
vector 223  VoIPMCoAMulti.AP_2.relayUnit  "buffer level"  ETV
vector 106  VoIPMCoAMulti.AP_HA.wlan.mgmt  "queue length"  ETV
vector 206  VoIPMCoAMulti.AP_1.wlan.mgmt  "queue length"  ETV
vector 224  VoIPMCoAMulti.AP_2.wlan.mgmt  "queue length"  ETV
vector 245  VoIPMCoAMulti.Rb.eth[0].mac  framesReceivedOK  ETV
vector 247  VoIPMCoAMulti.Rb.eth[0].mac  bytesReceivedOK  ETV
vector 251  VoIPMCoAMulti.Rb.eth[0].mac  framesPassedToHL  ETV
vector 32  VoIPMCoAMulti.Ra.eth[2].mac  framesReceivedOK  ETV
vector 34  VoIPMCoAMulti.Ra.eth[2].mac  bytesReceivedOK  ETV
vector 38  VoIPMCoAMulti.Ra.eth[2].mac  framesPassedToHL  ETV
vector 259  VoIPMCoAMulti.Rb.eth[1].mac  framesReceivedOK  ETV
vector 261  VoIPMCoAMulti.Rb.eth[1].mac  bytesReceivedOK  ETV
vector 265  VoIPMCoAMulti.Rb.eth[1].mac  framesPassedToHL  ETV
vector 55  VoIPMCoAMulti.CN[0].eth[0].mac  framesReceivedOK  ETV
vector 57  VoIPMCoAMulti.CN[0].eth[0].mac  bytesReceivedOK  ETV
vector 61  VoIPMCoAMulti.CN[0].eth[0].mac  framesPassedToHL  ETV
vector 161  VoIPMCoAMulti.MN[1].wlan[0].radio  "MAC loss rate"  ETV
vector 138  VoIPMCoAMulti.MN[0].wlan[0].radio  "MAC loss rate"  ETV
vector 111  VoIPMCoAMulti.AP_HA.eth[0]  framesSent  ETV
vector 113  VoIPMCoAMulti.AP_HA.eth[0]  bytesSent  ETV
vector 94  VoIPMCoAMulti.HA.eth[1].mac  framesReceivedOK  ETV
vector 96  VoIPMCoAMulti.HA.eth[1].mac  bytesReceivedOK  ETV
vector 100  VoIPMCoAMulti.HA.eth[1].mac  framesPassedToHL  ETV
vector 77  VoIPMCoAMulti.HA.eth[0].queue  "queue length"  ETV
vector 29  VoIPMCoAMulti.Ra.eth[2].queue  "queue length"  ETV
vector 256  VoIPMCoAMulti.Rb.eth[1].queue  "queue length"  ETV
vector 52  VoIPMCoAMulti.CN[0].eth[0].queue  "queue length"  ETV
vector 242  VoIPMCoAMulti.Rb.eth[0].queue  "queue length"  ETV
vector 1  VoIPMCoAMulti.Ra.eth[0].queue  "queue length"  ETV
vector 298  VoIPMCoAMulti.MN[0].networkLayer.xMobileIPv6  "BU to HA"  ETV
vector 211  VoIPMCoAMulti.AP_1.eth[0]  framesSent  ETV
vector 213  VoIPMCoAMulti.AP_1.eth[0]  bytesSent  ETV
vector 180  VoIPMCoAMulti.R1.eth[1].mac  framesReceivedOK  ETV
vector 182  VoIPMCoAMulti.R1.eth[1].mac  bytesReceivedOK  ETV
vector 186  VoIPMCoAMulti.R1.eth[1].mac  framesPassedToHL  ETV
vector 288  VoIPMCoAMulti.HA.networkLayer.xMobileIPv6  "BA to MN"  ETV
vector 302  VoIPMCoAMulti.MN[0].networkLayer.xMobileIPv6  "BA from HA"  ETV
vector 304  VoIPMCoAMulti.MN[0].networkLayer.xMobileIPv6  "HoTI to CN"  ETV
vector 305  VoIPMCoAMulti.MN[0].networkLayer.xMobileIPv6  "CoTI to CN"  ETV
vector 139  VoIPMCoAMulti.MN[0].wlan[1].mgmt  "queue length"  ETV
vector 143  VoIPMCoAMulti.MN[0].wlan[1].radio  "MAC loss rate"  ETV
vector 293  VoIPMCoAMulti.HA.networkLayer.xMobileIPv6  "HoT to MN"  ETV
vector 294  VoIPMCoAMulti.HA.networkLayer.xMobileIPv6  "CoT to MN"  ETV
vector 308  VoIPMCoAMulti.MN[0].networkLayer.xMobileIPv6  "HoT from CN"  ETV
vector 309  VoIPMCoAMulti.MN[0].networkLayer.xMobileIPv6  "CoT from CN"  ETV
vector 299  VoIPMCoAMulti.MN[0].networkLayer.xMobileIPv6  "BU to CN"  ETV
vector 280  VoIPMCoAMulti.CN[0].networkLayer.xMobileIPv6  "HoT to MN"  ETV
vector 281  VoIPMCoAMulti.CN[0].networkLayer.xMobileIPv6  "CoT to MN"  ETV
vector 275  VoIPMCoAMulti.CN[0].networkLayer.xMobileIPv6  "BA to MN"  ETV
vector 303  VoIPMCoAMulti.MN[0].networkLayer.xMobileIPv6  "BA from CN"  ETV
vector 134  VoIPMCoAMulti.MN[0].wlan[0].mgmt  "queue length"  ETV
vector 229  VoIPMCoAMulti.AP_2.eth[0]  framesSent  ETV
vector 231  VoIPMCoAMulti.AP_2.eth[0]  bytesSent  ETV
vector 194  VoIPMCoAMulti.R1.eth[2].mac  framesReceivedOK  ETV
vector 196  VoIPMCoAMulti.R1.eth[2].mac  bytesReceivedOK  ETV
vector 200  VoIPMCoAMulti.R1.eth[2].mac  framesPassedToHL  ETV
vector 148  VoIPMCoAMulti.MN[0].wlan[2].radio  "MAC loss rate"  ETV
vector 144  VoIPMCoAMulti.MN[0].wlan[2].mgmt  "queue length"  ETV
vector 110  VoIPMCoAMulti.AP_HA.wlan.radio  "MAC loss rate"  ETV
vector 210  VoIPMCoAMulti.AP_1.wlan.radio  "MAC loss rate"  ETV
vector 163  VoIPMCoAMulti.R1.eth[0].queue  "queue length"  ETV
0	10585 8 0 0 0 0 1 1 1 1 1
1	10593 52 18253 18257 10.261443140874 10.261511940874 2 0 1 1 1
3	10645 524 540 348372 1.0000672 186.041823714245 20 1 20 210 2870
4	11169 1001 802 366703 1.0100672 195.021267333852 37 1 37 703 17575
5	12170 561 540 348372 1.0000672 186.041823714245 20 64 1786 17954 22443412
6	12731 1071 802 366703 1.0100672 195.021267333852 37 64 2938 57288 117733880
10	13802 1038 802 366703 1.0100672 195.021267333852 37 1 37 703 17575
17	14840 2090 541 368978 1.0000672 196.100908723405 73 1 73 2701 132349
18	16930 872 804 372858 1.0100672 198.122148933852 31 1 31 496 10416
19	17802 2234 541 368978 1.0000672 196.100908723405 73 64 6220 237502 1014891964
20	20036 932 804 372858 1.0100672 198.122148933852 31 64 3470 52008 120468280
24	20968 872 804 372858 1.0100672 198.122148933852 31 1 31 496 10416
29	21840 54 17779 17783 10.080695940874 10.080764740874 2 0 1 1 1
31	21894 1200 542 372866 1.0000672 198.122268933852 42 1 42 903 25585
32	23094 1925 1450 368970 1.0200672 196.100839923405 67 1 67 2278 102510
33	25019 1279 542 372866 1.0000672 198.122268933852 42 64 3792 73676 178565824
34	26298 2055 1450 368970 1.0200672 196.100839923405 67 64 5390 184282 674741188
38	28353 1925 1450 368970 1.0200672 196.100839923405 67 1 67 2278 102510
51	30278 9 0 0 0 0 1 1 1 1 1
52	30287 2140 17994 368823 10.161036740874 196.060702323405 76 0 3 96 186
54	32427 2001 543 368827 1.0000672 196.060771123405 70 1 70 2485 116795
55	34428 1253 1452 373000 1.0200672 198.162388933852 44 1 44 990 29370
56	35681 2136 543 368827 1.0000672 196.060771123405 70 64 5582 197746 748434708
57	37817 1336 1452 373000 1.0200672 198.162388933852 44 64 3920 79376 198302960
61	39153 1253 1452 373000 1.0200672 198.162388933852 44 1 44 990 29370
76	40406 37 0 61889 0 35 3 1 2 4 6
77	40443 108 17641 26581 10.030492740874 14.300955632905 4 0 1 2 2
79	40551 1038 544 366673 1.0000672 195.011267333852 37 1 37 703 17575
80	41589 544 800 348414 1.0100672 186.051823714245 20 1 20 210 2870
81	42133 1108 544 366673 1.0000672 195.011267333852 37 64 2938 57288 117733880
82	43241 581 800 348414 1.0100672 186.051823714245 20 64 1786 17954 22443412
86	43822 544 800 348414 1.0100672 186.051823714245 20 1 20 210 2870
91	44366 832 71 764 0.115677423169 1.0012768 38 0 19 361 4579
93	45198 120524 545 376207 1.0000672 199.955973193663 3922 1 3922 7693003 20117202845
94	165722 763 8530 366662 5.111241259032 195.011198533852 27 1 27 378 6930
95	166485 127741 545 376207 1.0000672 199.955973193663 3922 64 251012 492366998 82403989203468
96	294226 803 8530 366662 5.111241259032 195.011198533852 27 40 1248 17216 14538240
100	295029 790 8530 366662 5.111241259032 195.011198533852 27 1 27 378 6930
105	295819 233088 810 376237 1.0100672 199.965975193663 7898 0 66 252260 16123016
106	528907 846 863 1507 1.0102036 1.022153927258 36 0 16 288 3114
108	529753 2428616 0 376274 0 199.985153900997 83552 0 7 214878 813190
109	2958369 702018 0 376266 0 199.985023900997 24162 0 2 24040 47960
110	3660387 30 327342 327342 176.022294178288 176.022294178288 1 0 0 0 0
111	3660417 790 8491 366617 5.101241259032 195.001198533852 27 1 27 378 6930
112	3661207 124456 803 376235 1.0100672 199.965973193663 3922 1 3922 7693003 20117202845
113	3785663 830 8491 366617 5.101241259032 195.001198533852 27 40 1248 17216 14538240
114	3786493 131673 803 376235 1.0100672 199.965973193663 3922 64 251012 492366998 82403989203468
118	3918166 124456 803 376235 1.0100672 199.965973193663 3922 1 3922 7693003 20117202845
133	4042622 10 0 0 0 0 1 1 1 1 1
134	4042632 43 28369 28400 15 15.000554605291 2 0 1 1 1
136	4042675 524474 0 376268 0 199.985024152214 18132 0 7 23068 87300
137	4567149 256300 0 376267 0 199.985024152214 8896 0 2 5706 8226
138	4823449 888 8118 373625 4.911634841796 198.503999468112 31 0 0 0 0
139	4824337 111 26033 26083 14.227816253575 14.229960348985 4 0 2 4 6
141	4824448 824196 0 376121 0 199.893386130726 28362 0 7 9328 36676
142	5648644 514996 0 376119 0 199.892936130726 17736 0 2 9408 10492
143	6163640 2405 26062 365755 14.22899730128 194.563604659007 83 0 0 0 0
144	6166045 112 68790 68840 38.412579244677 38.414643319631 4 0 2 4 6
146	6166157 792422 0 376172 0 199.913297018946 27112 0 7 11708 44664
147	6958579 484128 0 376170 0 199.912927018946 16536 0 2 8910 10198
148	7442707 2226 68609 317824 38.390258257037 171.124758411246 76 0 0 0 0
156	7444933 10 0 0 0 0 1 1 1 1 1
159	7444943 1073300 0 376271 0 199.985024332493 36908 0 7 356 1400
160	8518243 711378 0 376270 0 199.985024332493 24460 0 2 12246 12282
161	9229621 3550 6246 375948 3.976472286066 199.785024332493 122 0 0 0 0
162	9233171 70 0 77711 0 45 5 1 2 7 11
163	9233241 593 352628 372790 188.11192968165 198.112028933852 20 0 3 28 58
165	9233834 903 546 372794 1.0000672 198.112148933852 31 1 31 496 10416
166	9234737 2163 801 369021 1.0100672 196.110908723405 73 1 73 2701 132349
167	9236900 963 546 372794 1.0000672 198.112148933852 31 64 3470 52008 120468280
168	9237863 2307 801 369021 1.0100672 196.110908723405 73 64 6220 237502 1014891964
172	9240170 2163 801 369021 1.0100672 196.110908723405 73 1 73 2701 132349
177	9242333 912 68 777 0.09995410364 1.001344 40 0 20 400 5340
179	9243245 121903 547 376281 1.0000672 199.987244789206 3838 1 3838 7367041 18852257919
180	9365148 280 25631 340549 14.116005681711 182.153571321243 10 1 10 55 385
181	9365428 128960 547 376281 1.0000672 199.987244789206 3838 64 246194 473371678 77721938404508
182	9494388 299 25631 340549 14.116005681711 182.153571321243 10 108 756 4344 2398376
186	9494687 280 25631 340549 14.116005681711 182.153571321243 10 1 10 55 385
191	9494967 960 74 786 0.118605855963 1.0014112 42 0 21 441 6181
193	9495927 122652 548 376187 1.0000672 199.94592967932 3860 1 3860 7451730 19178269110
194	9618579 252 68458 69641 38.340893306645 38.568705252375 9 1 9 45 285
195	9618831 129751 548 376187 1.0000672 199.94592967932 3860 64 247606 478146382 78929824932828
196	9748582 270 68458 69641 38.340893306645 38.568705252375 9 130 782 3564 1813048
200	9748852 252 68458 69641 38.340893306645 38.568705252375 9 1 9 45 285
205	9749104 227424 812 376285 1.0100672 199.997246789206 7696 0 144 246950 15880132
206	9976528 1475 864 369258 1.0102036 196.167498287028 58 0 16 309 3073
208	9978003 2375804 0 376293 0 199.997732607387 82178 0 7 212144 802008
209	12353807 688666 0 376291 0 199.997542607387 23806 0 2 23678 47230
210	13042473 30 329980 329980 177.142733051204 177.142733051204 1 0 0 0 0
211	13042503 280 25563 340505 14.106005681711 182.143571321243 10 1 10 55 385
212	13042783 121913 805 376283 1.0100672 199.997244789206 3838 1 3838 7367041 18852257919
213	13164696 299 25563 340505 14.106005681711 182.143571321243 10 108 756 4344 2398376
214	13164995 128970 805 376283 1.0100672 199.997244789206 3838 64 246194 473371678 77721938404508
218	13293965 121913 805 376283 1.0100672 199.997244789206 3838 1 3838 7367041 18852257919
223	13415878 228759 813 376204 1.0100672 199.95593167932 7738 0 144 248388 15989448
224	13644637 1241 865 336235 1.0102036 180.179030682682 50 0 18 367 4289
226	13645878 2417852 0 376233 0 199.962745096911 83064 0 7 214574 810946
227	16063730 700214 0 376231 0 199.962655096911 24062 0 2 23964 47832
229	16763944 252 68425 69608 38.330893306645 38.558705252375 9 1 9 45 285
230	16764196 122663 806 376202 1.0100672 199.95592967932 3860 1 3860 7451730 19178269110
231	16886859 270 68425 69608 38.330893306645 38.558705252375 9 130 782 3564 1813048
232	16887129 129762 806 376202 1.0100672 199.95592967932 3860 64 247606 478146382 78929824932828
236	17016891 122663 806 376202 1.0100672 199.95592967932 3860 1 3860 7451730 19178269110
241	17139554 10 0 0 0 0 1 1 1 1 1
242	17139564 56 18140 18144 10.221239940874 10.221308740874 2 0 1 1 1
244	17139620 1991 549 368890 1.0000672 196.080839923405 67 1 67 2278 102510
245	17141611 1243 1449 372916 1.0200672 198.142268933852 42 1 42 903 25585
246	17142854 2121 549 368890 1.0000672 196.080839923405 67 64 5390 184282 674741188
247	17144975 1322 1449 372916 1.0200672 198.142268933852 42 64 3792 73676 178565824
251	17146297 1243 1449 372916 1.0200672 198.142268933852 42 1 42 903 25585
256	17147540 56 17937 17941 10.140899140874 10.140967940874 2 0 1 1 1
258	17147596 1296 550 372926 1.0000672 198.142388933852 44 1 44 990 29370
259	17148892 2072 1451 368882 1.0200672 196.080771123405 70 1 70 2485 116795
260	17150964 1379 550 372926 1.0000672 198.142388933852 44 64 3920 79376 198302960
261	17152343 2207 1451 368882 1.0200672 196.080771123405 70 64 5582 197746 748434708
265	17154550 2072 1451 368882 1.0200672 196.080771123405 70 1 70 2485 116795
270	17156622 75 132 132 0.233447027066 0.233447027066 3 1 1 3 3
271	17156697 50 87 3639 0.156140310969 2.528305054092 2 1 1 2 2
275	17156747 56 27166 69820 14.434059107007 38.619108452375 2 2 2 4 8
280	17156803 55 26514 69198 14.29124340011 38.475926365642 2 1 1 2 2
281	17156858 56 26541 69228 14.291846447815 38.476729403119 2 1 1 2 2
284	17156914 50 198 198 0.293585502868 0.293585502868 2 1 1 2 2
288	17156964 112 25764 69327 14.156373681711 38.506785953346 4 1 1 4 4
293	17157076 54 26257 69002 14.2590045047 38.443927490688 2 1 1 2 2
294	17157130 56 26270 69015 14.259967552405 38.444650528165 2 1 1 2 2
297	17157186 156 191 65811 0.289443216007 37.08915508292 6 1 1 6 6
298	17157342 56 25544 68406 14.105555209292 38.330409239375 2 1 1 2 2
299	17157398 632 26465 371694 14.290528418602 197.475395092227 22 1 1 22 22
302	17158030 56 26022 68779 14.227816253575 38.412579244677 2 1 1 2 2
303	17158086 56 27334 69975 14.494795821533 38.679931561897 2 1 1 2 2
304	17158142 112 26023 68782 14.227816253575 38.412579244677 4 1 1 4 4
305	17158254 112 26024 68783 14.227816253575 38.412579244677 4 1 1 4 4
308	17158366 112 26441 69555 14.289759261806 38.556978714598 4 1 1 4 4
309	17158478 112 26464 69499 14.290528418602 38.537371864238 4 1 1 4 4
310	17158590 51 254 3982 0.419663425534 2.746018912556 2 1 1 2 2
323	17158641 75 145 145 0.234158752695 0.234158752695 3 1 1 3 3
324	17158716 50 120 120 0.216189795476 0.216189795476 2 1 1 2 2
